<?xml version="1.0"?>
<VTKFile type="UnstructuredGrid"  version="0.1"  >
<UnstructuredGrid>
<Piece  NumberOfPoints="205" NumberOfCells="320">
<Points>
<DataArray  type="Float64"  NumberOfComponents="3"  format="ascii">0.625 0.4 0  0.875 0.65 0  1 0.65 0  1 0.475 0  0.625 1 0  1 0.8250000000000001 0  0.75 0.225 0  0.375 0.05 0  0.125 0.65 0  0.125 0.4 0  0.875 0.7000000000000001 0  1 0.675 0  0.75 0.775 0  0.25 0.8250000000000001 0  0.75 0.675 0  0.375 0.7000000000000001 0  0.375 0.6000000000000001 0  1 0.225 0  1 0.025 0  0.875 0.9 0  0.125 0.525 0  1 1 0  1 0.9750000000000001 0  1 0.875 0  0.625 0.45 0  0.5 0.5750000000000001 0  0.125 0 0  0.125 0.55 0  0.875 0.9500000000000001 0  0.875 0.3 0  0.25 0.875 0  0.375 0.5 0  0.25 0.525 0  0.25 0.675 0  0.625 0.8 0  0.125 1 0  0.125 0.45 0  0.875 1 0  0.375 0.1 0  0.875 0.6000000000000001 0  0.75 0.275 0  0.125 0.6000000000000001 0  0.75 0.8250000000000001 0  0.375 0.45 0  1 0.15 0  1 0.05 0  1 0.8500000000000001 0  0.125 0.5 0  0.5 0.875 0  0.75 0.875 0  0.75 0.07500000000000001 0  0.5 0.025 0  0.25 0.275 0  0.75 0.375 0  0.625 0.55 0  0.375 0.9 0  0.5 0.775 0  1 0.7250000000000001 0  0.875 0.45 0  0.625 0.3 0  1 0.4 0  0.25 0.9750000000000001 0  0.875 0 0  0.625 0.75 0  0.75 0.475 0  0.25 0.175 0  1 0.8 0  0.375 0.3 0  0.125 0.7250000000000001 0  0.375 0.25 0  1 0.2 0  0.25 0.325 0  0.75 0.325 0  0.5 0.175 0  0.5 0.225 0  0.5 0.425 0  0.625 0.1 0  0.125 0.875 0  0.125 0.475 0  0.125 0.2 0  0.25 0.7250000000000001 0  0.75 0.5750000000000001 0  0.125 0.325 0  0.625 0.9500000000000001 0  1 0.125 0  1 0.425 0  1 0.3 0  0.375 0.4 0  0.875 0.35 0  1 0.9 0  0.125 0.7000000000000001 0  0.625 0.25 0  1 0.5750000000000001 0  0.125 0.8 0  0.75 0.425 0  1 0.45 0  1 0.55 0  0.125 0.275 0  0.75 0.175 0  0.5 0.925 0  0.125 0.05 0  0.25 0.375 0  0.375 0.15 0  1 0.9500000000000001 0  0.25 0.775 0  0.25 0.125 0  0.25 0.225 0  1 0.375 0  0.375 0.8500000000000001 0  0.125 0.5750000000000001 0  0.25 0.925 0  1 0.07500000000000001 0  0.25 0.025 0  1 0.5 0  0.375 0 0  1 0.325 0  0.625 0.65 0  0.125 0.15 0  1 0.6000000000000001 0  0.625 0 0  0.375 0.65 0  0.125 0.925 0  0.375 0.55 0  0.125 0.125 0  0.125 0.675 0  0.875 0.1 0  0.125 0.175 0  0.875 0.25 0  0.625 0.8500000000000001 0  0.5 0.675 0  0.5 0.275 0  0.125 0.07500000000000001 0  0.375 0.75 0  1 0.25 0  0.5 0.07500000000000001 0  0.375 0.8 0  0.625 0.15 0  1 0.1 0  0.5 0.625 0  0.625 0.2 0  0.25 0.5750000000000001 0  0.75 0.625 0  0.875 0.4 0  0.25 0.475 0  1 0.7000000000000001 0  0.25 0.07500000000000001 0  0.75 0.125 0  0.75 0.925 0  0.75 0.525 0  0.125 0.9 0  0.75 0.025 0  0.5 0.525 0  0.125 0.625 0  0.125 0.775 0  0.125 0.1 0  0.75 0.7250000000000001 0  0.125 0.425 0  1 0 0  0.875 0.55 0  0.125 0.375 0  0.625 0.7000000000000001 0  0.5 0.325 0  0.25 0.425 0  0.625 0.9 0  1 0.925 0  0.75 0.9750000000000001 0  1 0.175 0  0.125 0.9500000000000001 0  0.875 0.2 0  0.125 0.35 0  0.5 0.125 0  0.625 0.35 0  1 0.625 0  1 0.525 0  1 0.275 0  0.125 0.8500000000000001 0  0.375 1 0  0.625 0.5 0  0.5 0.7250000000000001 0  0.5 0.475 0  0.25 0.625 0  0.875 0.75 0  0.125 0.25 0  0.375 0.2 0  0.375 0.35 0  0.875 0.5 0  0.125 0.025 0  0.875 0.8 0  0.875 0.05 0  0.375 0.9500000000000001 0  0.5 0.9750000000000001 0  0.5 0.375 0  0.125 0.75 0  0.125 0.3 0  1 0.35 0  0.625 0.6000000000000001 0  0.625 0.05 0  0.125 0.9750000000000001 0  1 0.775 0  0.125 0.8250000000000001 0  0.5 0.8250000000000001 0  1 0.75 0  0.875 0.8500000000000001 0  0.875 0.15 0  0.125 0.225 0  </DataArray>
</Points>
<Cells>
<DataArray  type="UInt32"  Name="connectivity"  format="ascii">26 112 186  26 112 114  51 112 114  51 114 119  51 119 150  62 119 150  18 62 150  18 62 157  100 112 186  7 100 112  7 51 112  7 51 196  51 150 196  150 188 196  18 150 188  18 45 188  100 131 145  7 100 145  7 134 145  7 134 196  50 134 196  50 188 196  50 111 188  45 111 188  131 145 154  38 145 154  38 134 145  38 76 134  50 76 134  50 76 125  50 111 125  111 125 137  105 123 154  38 105 154  38 105 170  38 76 170  76 146 170  76 125 146  84 125 146  84 125 137  105 117 123  102 105 117  102 105 170  102 136 170  136 146 170  136 146 203  84 146 203  44 84 203  65 117 126  65 102 117  65 73 102  73 102 136  73 98 136  98 136 203  98 166 203  44 166 203  65 79 126  65 79 183  65 73 183  73 139 183  73 98 139  98 139 168  98 166 168  70 166 168  79 106 204  79 106 183  74 106 183  74 139 183  6 74 139  6 139 168  6 17 168  17 70 168  106 182 204  69 106 182  69 74 106  69 74 91  6 74 91  6 91 127  6 17 127  17 127 133  52 97 182  52 69 182  52 69 130  69 91 130  40 91 130  40 91 127  40 127 174  127 133 174  52 97 193  52 67 193  52 67 130  59 67 130  40 59 130  29 40 59  29 40 174  29 86 174  71 82 193  67 71 193  67 71 161  59 67 161  59 72 161  29 59 72  29 72 115  29 86 115  71 82 169  71 169 184  71 161 184  161 171 184  72 161 171  72 88 171  72 88 115  88 115 194  101 159 169  101 169 184  101 184 191  171 184 191  53 171 191  53 88 171  53 88 107  88 107 194  9 101 159  9 87 101  87 101 191  0 87 191  0 53 191  0 53 142  53 107 142  60 107 142  9 156 162  9 87 162  75 87 162  0 75 87  0 75 94  0 94 142  85 94 142  60 85 142  36 156 162  36 43 162  43 75 162  24 43 75  24 75 94  24 58 94  58 85 94  58 85 95  36 78 143  36 43 143  43 143 179  24 43 179  24 64 179  24 58 64  3 58 64  3 58 95  47 78 143  31 47 143  31 143 179  31 177 179  64 177 179  64 177 185  3 64 185  3 113 185  20 32 47  31 32 47  31 32 151  31 151 177  148 151 177  148 177 185  148 173 185  113 173 185  20 27 32  27 32 122  32 122 151  54 122 151  54 148 151  54 148 158  148 158 173  96 158 173  27 109 140  27 122 140  25 122 140  25 54 122  25 54 81  54 81 158  81 92 158  92 96 158  41 109 140  16 41 140  16 25 140  16 25 195  25 81 195  39 81 195  39 81 92  39 92 118  41 152 180  16 41 180  16 138 180  16 138 195  138 141 195  39 141 195  39 141 172  39 118 172  8 152 180  8 120 180  120 138 180  116 120 138  116 138 141  1 116 141  1 141 172  1 2 172  8 33 124  8 33 120  33 120 129  116 120 129  14 116 129  1 14 116  1 11 14  1 2 11  33 90 124  15 33 90  15 33 129  15 129 160  14 129 160  10 14 160  10 11 14  10 11 144  68 80 90  15 80 90  15 80 178  15 160 178  155 160 178  10 155 160  10 57 155  10 57 144  68 80 192  80 132 192  80 132 178  63 132 178  63 155 178  63 155 181  57 155 181  57 181 201  104 153 192  104 132 192  56 104 132  56 63 132  12 56 63  12 63 181  12 181 198  181 198 201  93 104 153  93 104 135  56 104 135  34 56 135  12 34 56  12 34 187  12 187 198  66 187 198  13 93 199  13 93 135  13 135 200  34 135 200  34 42 200  34 42 187  5 42 187  5 66 187  13 175 199  13 108 175  13 108 200  108 128 200  42 128 200  42 128 202  5 42 202  5 46 202  30 77 175  30 108 175  30 48 108  48 108 128  48 49 128  49 128 202  23 49 202  23 46 202  30 77 149  30 55 149  30 48 55  48 55 163  48 49 163  19 49 163  19 23 49  19 23 89  110 121 149  55 110 149  55 99 110  55 99 163  99 147 163  19 147 163  19 147 164  19 89 164  110 121 167  110 167 189  99 110 189  83 99 189  83 99 147  28 83 147  28 147 164  28 103 164  61 167 197  61 167 189  61 189 190  83 189 190  83 165 190  28 83 165  22 28 165  22 28 103  35 61 197  35 61 176  61 176 190  4 176 190  4 165 190  4 37 165  22 37 165  21 22 37  </DataArray>
<DataArray  type="UInt32"  Name="offsets"  format="ascii">3 6 9 12 15 18 21 24 27 30 33 36 39 42 45 48 51 54 57 60 63 66 69 72 75 78 81 84 87 90 93 96 99 102 105 108 111 114 117 120 123 126 129 132 135 138 141 144 147 150 153 156 159 162 165 168 171 174 177 180 183 186 189 192 195 198 201 204 207 210 213 216 219 222 225 228 231 234 237 240 243 246 249 252 255 258 261 264 267 270 273 276 279 282 285 288 291 294 297 300 303 306 309 312 315 318 321 324 327 330 333 336 339 342 345 348 351 354 357 360 363 366 369 372 375 378 381 384 387 390 393 396 399 402 405 408 411 414 417 420 423 426 429 432 435 438 441 444 447 450 453 456 459 462 465 468 471 474 477 480 483 486 489 492 495 498 501 504 507 510 513 516 519 522 525 528 531 534 537 540 543 546 549 552 555 558 561 564 567 570 573 576 579 582 585 588 591 594 597 600 603 606 609 612 615 618 621 624 627 630 633 636 639 642 645 648 651 654 657 660 663 666 669 672 675 678 681 684 687 690 693 696 699 702 705 708 711 714 717 720 723 726 729 732 735 738 741 744 747 750 753 756 759 762 765 768 771 774 777 780 783 786 789 792 795 798 801 804 807 810 813 816 819 822 825 828 831 834 837 840 843 846 849 852 855 858 861 864 867 870 873 876 879 882 885 888 891 894 897 900 903 906 909 912 915 918 921 924 927 930 933 936 939 942 945 948 951 954 957 960 </DataArray>
<DataArray  type="UInt8"  Name="types"  format="ascii">5 5 5 5 5 5 5 5 5 5 5 5 5 5 5 5 5 5 5 5 5 5 5 5 5 5 5 5 5 5 5 5 5 5 5 5 5 5 5 5 5 5 5 5 5 5 5 5 5 5 5 5 5 5 5 5 5 5 5 5 5 5 5 5 5 5 5 5 5 5 5 5 5 5 5 5 5 5 5 5 5 5 5 5 5 5 5 5 5 5 5 5 5 5 5 5 5 5 5 5 5 5 5 5 5 5 5 5 5 5 5 5 5 5 5 5 5 5 5 5 5 5 5 5 5 5 5 5 5 5 5 5 5 5 5 5 5 5 5 5 5 5 5 5 5 5 5 5 5 5 5 5 5 5 5 5 5 5 5 5 5 5 5 5 5 5 5 5 5 5 5 5 5 5 5 5 5 5 5 5 5 5 5 5 5 5 5 5 5 5 5 5 5 5 5 5 5 5 5 5 5 5 5 5 5 5 5 5 5 5 5 5 5 5 5 5 5 5 5 5 5 5 5 5 5 5 5 5 5 5 5 5 5 5 5 5 5 5 5 5 5 5 5 5 5 5 5 5 5 5 5 5 5 5 5 5 5 5 5 5 5 5 5 5 5 5 5 5 5 5 5 5 5 5 5 5 5 5 5 5 5 5 5 5 5 5 5 5 5 5 5 5 5 5 5 5 5 5 5 5 5 5 5 5 5 5 5 5 5 5 5 5 5 5 5 5 5 5 5 5 </DataArray>
</Cells>
<PointData  Scalars="f_3"> 
<DataArray  type="Float64"  Name="f_3"  format="ascii">6.4057398002999394e-02  2.2060683370764004e-02  0.0000000000000000e+00  0.0000000000000000e+00  0.0000000000000000e+00  0.0000000000000000e+00  2.1145425232199064e-02  3.7978104650677373e-03  0.0000000000000000e+00  0.0000000000000000e+00  1.7646014441091800e-02  0.0000000000000000e+00  2.1145425232199064e-02  8.5401935653092263e-03  3.6573719476946029e-02  3.4281108677048276e-02  5.4536766216479078e-02  0.0000000000000000e+00  0.0000000000000000e+00  4.3455987723328166e-03  0.0000000000000000e+00  0.0000000000000000e+00  0.0000000000000000e+00  0.0000000000000000e+00  7.2579380396032067e-02  7.1984869562968554e-02  0.0000000000000000e+00  0.0000000000000000e+00  2.0956946848618954e-03  1.7646014441091804e-02  5.6493665532196110e-03  6.5275981569510172e-02  3.5903513837320052e-02  2.1889770185194213e-02  2.2598488211827559e-02  0.0000000000000000e+00  0.0000000000000000e+00  0.0000000000000000e+00  7.8974849301753549e-03  2.6169985824967851e-02  2.8352488741582818e-02  0.0000000000000000e+00  1.5107274173325538e-02  6.2321397723563356e-02  0.0000000000000000e+00  0.0000000000000000e+00  0.0000000000000000e+00  0.0000000000000000e+00  1.2637087174373222e-02  1.0071401062103389e-02  5.7584410939933222e-03  2.3417101470882282e-03  1.6560030539279458e-02  4.5056507264442443e-02  7.2579380396032123e-02  7.8974849301753549e-03  2.6909343984395512e-02  0.0000000000000000e+00  2.9150386539660050e-02  4.1314827646708886e-02  0.0000000000000000e+00  1.0444634893372415e-03  0.0000000000000000e+00  3.1103981019807554e-02  5.6620595715969863e-02  8.5401935653092228e-03  0.0000000000000000e+00  3.4281108677048276e-02  0.0000000000000000e+00  2.5502693409810213e-02  0.0000000000000000e+00  2.1889770185194213e-02  3.6573719476946029e-02  1.9050323264668274e-02  2.6909343984395505e-02  7.1984869562968512e-02  9.8027432440856311e-03  0.0000000000000000e+00  0.0000000000000000e+00  0.0000000000000000e+00  1.6560030539279454e-02  5.2338649196406746e-02  0.0000000000000000e+00  4.7210692275866852e-03  0.0000000000000000e+00  0.0000000000000000e+00  0.0000000000000000e+00  5.4536766216479057e-02  2.2060683370764000e-02  0.0000000000000000e+00  0.0000000000000000e+00  3.1103981019807551e-02  0.0000000000000000e+00  0.0000000000000000e+00  5.2338649196406732e-02  0.0000000000000000e+00  0.0000000000000000e+00  0.0000000000000000e+00  1.5107274173325538e-02  7.2078789279198478e-03  0.0000000000000000e+00  2.7657635996872723e-02  1.2628367013979375e-02  0.0000000000000000e+00  1.2112241372981216e-02  5.6493665532196102e-03  1.2112241372981218e-02  0.0000000000000000e+00  1.2628367013979369e-02  0.0000000000000000e+00  3.2171269085470322e-03  0.0000000000000000e+00  1.0444634893372459e-03  0.0000000000000000e+00  0.0000000000000000e+00  0.0000000000000000e+00  5.2795950398386970e-02  0.0000000000000000e+00  0.0000000000000000e+00  0.0000000000000000e+00  4.4399976749420256e-02  0.0000000000000000e+00  6.2321397723563404e-02  0.0000000000000000e+00  0.0000000000000000e+00  4.3455987723328140e-03  0.0000000000000000e+00  1.3513220374850045e-02  1.5626107019013933e-02  4.8203811482450773e-02  3.6618461929848488e-02  0.0000000000000000e+00  2.5502693409810217e-02  0.0000000000000000e+00  7.2078789279198512e-03  1.8365869057601326e-02  1.5626107019013940e-02  0.0000000000000000e+00  6.0749621593834721e-02  2.2598488211827559e-02  3.2803109894499888e-02  4.5056507264442471e-02  2.6169985824967854e-02  3.5903513837320031e-02  0.0000000000000000e+00  3.2171269085470365e-03  1.0071401062103384e-02  5.7584410939933240e-03  5.6620595715969876e-02  0.0000000000000000e+00  1.8726251846731875e-03  7.8781930302163891e-02  0.0000000000000000e+00  0.0000000000000000e+00  0.0000000000000000e+00  2.8352488741582804e-02  0.0000000000000000e+00  0.0000000000000000e+00  2.9150386539660053e-02  0.0000000000000000e+00  4.1314827646708872e-02  4.8203811482450759e-02  3.2803109894499867e-02  9.8027432440856346e-03  0.0000000000000000e+00  1.8726251846731821e-03  0.0000000000000000e+00  0.0000000000000000e+00  9.9265821508645862e-03  0.0000000000000000e+00  1.2637087174373215e-02  5.2795950398386970e-02  0.0000000000000000e+00  0.0000000000000000e+00  0.0000000000000000e+00  0.0000000000000000e+00  0.0000000000000000e+00  7.5789892004316739e-02  3.6618461929848474e-02  7.8781930302163863e-02  2.7657635996872744e-02  1.3513220374850046e-02  0.0000000000000000e+00  1.8365869057601323e-02  4.4399976749420235e-02  3.0246985508739267e-02  0.0000000000000000e+00  9.9265821508645862e-03  2.0956946848618959e-03  3.7978104650677304e-03  2.3417101470882191e-03  6.0749621593834686e-02  0.0000000000000000e+00  0.0000000000000000e+00  0.0000000000000000e+00  6.4057398002999394e-02  4.7210692275866904e-03  0.0000000000000000e+00  0.0000000000000000e+00  0.0000000000000000e+00  1.9050323264668271e-02  0.0000000000000000e+00  6.9060431333575036e-03  6.9060431333575062e-03  0.0000000000000000e+00  </DataArray> 
</PointData> 
</Piece>
</UnstructuredGrid>
</VTKFile>